# vtk DataFile Version 2.0
2D scalar data
ASCII

DATASET STRUCTURED_POINTS
DIMENSIONS    20   20    1
ORIGIN   -10.000 -10.000   0.000
SPACING    1.000   1.000   1.000

POINT_DATA     400
SCALARS scalars float
LOOKUP_TABLE default
 0.0 0.0 0.0 0.0 0.0 0.0 0.0 0.0 0.0 0.0 0.0 0.0 0.0 0.0 0.0 0.0 0.0 0.0 0.0 0.0 
 0.0 1.5 1.5 1.5 1.5 1.5 1.5 1.5 1.5 0.0 0.0 1.0 1.0 1.0 1.0 1.0 1.0 1.0 1.0 0.0 
 0.0 1.5 3.0 3.0 3.0 3.0 3.0 3.0 1.5 0.0 0.0 1.0 2.0 2.0 2.0 2.0 2.0 2.0 1.0 0.0 
 0.0 1.5 3.0 4.5 4.5 4.5 4.5 3.0 1.5 0.0 0.0 1.0 2.0 3.0 3.0 3.0 3.0 2.0 1.0 0.0 
 0.0 1.5 3.0 4.5 6.0 6.0 4.5 3.0 1.5 0.0 0.0 1.0 2.0 3.0 4.0 4.0 3.0 2.0 1.0 0.0 
 0.0 1.5 3.0 4.5 6.0 6.0 4.5 3.0 1.5 0.0 0.0 1.0 2.0 3.0 4.0 4.0 3.0 2.0 1.0 0.0 
 0.0 1.5 3.0 4.5 4.5 4.5 4.5 3.0 1.5 0.0 0.0 1.0 2.0 3.0 3.0 3.0 3.0 2.0 1.0 0.0 
 0.0 1.5 3.0 3.0 3.0 3.0 3.0 3.0 1.5 0.0 0.0 1.0 2.0 2.0 2.0 2.0 2.0 2.0 1.0 0.0 
 0.0 1.5 1.5 1.5 1.5 1.5 1.5 1.5 1.5 0.0 0.0 1.0 1.0 1.0 1.0 1.0 1.0 1.0 1.0 0.0 
 0.0 0.0 0.0 0.0 0.0 0.0 0.0 0.0 0.0 0.0 0.0 0.0 0.0 0.0 0.0 0.0 0.0 0.0 0.0 0.0  
 0.0 0.0 0.0 0.0 0.0 0.0 0.0 0.0 0.0 0.0 0.0 0.0 0.0 0.0 0.0 0.0 0.0 0.0 0.0 0.0 
 0.0 2.0 2.0 2.0 2.0 2.0 2.0 2.0 2.0 0.0 0.0 0.5 0.5 0.5 0.5 0.5 0.5 0.5 0.5 0.0 
 0.0 2.0 4.0 4.0 4.0 4.0 4.0 4.0 2.0 0.0 0.0 0.5 1.0 1.0 1.0 1.0 1.0 1.0 0.5 0.0 
 0.0 2.0 4.0 6.0 6.0 6.0 6.0 4.0 2.0 0.0 0.0 0.5 1.0 1.5 1.5 1.5 1.5 1.0 0.5 0.0  
 0.0 2.0 4.0 6.0 8.0 8.0 6.0 4.0 2.0 0.0 0.0 0.5 1.0 1.5 2.0 2.0 1.5 1.0 0.5 0.0 
 0.0 2.0 4.0 6.0 8.0 8.0 6.0 4.0 2.0 0.0 0.0 0.5 1.0 1.5 2.0 2.0 1.5 1.0 0.5 0.0 
 0.0 2.0 4.0 6.0 6.0 6.0 6.0 4.0 2.0 0.0 0.0 0.5 1.0 1.5 1.5 1.5 1.5 1.0 0.5 0.0 
 0.0 2.0 4.0 4.0 4.0 4.0 4.0 4.0 2.0 0.0 0.0 0.5 1.0 1.0 1.0 1.0 1.0 1.0 0.5 0.0 
 0.0 2.0 2.0 2.0 2.0 2.0 2.0 2.0 2.0 0.0 0.0 0.5 0.5 0.5 0.5 0.5 0.5 0.5 0.5 0.0 
 0.0 0.0 0.0 0.0 0.0 0.0 0.0 0.0 0.0 0.0 0.0 0.0 0.0 0.0 0.0 0.0 0.0 0.0 0.0 0.0 

